# Projected DOS for atomic kind O at iteration step i = 2, E(Fermi) =    -0.318907 a.u.
#     MO Eigenvalue [a.u.]      Occupation                 s                 p                 d
       1         -1.069033        1.000000        0.47609414        0.06844148        0.00460317
       2         -0.510008        1.000000        0.15628865        0.60683048        0.00912908
       3         -0.423122        1.000000        0.00000000        0.66021620        0.00888601
       4         -0.423122        1.000000        0.00000000        0.66021620        0.00888601
       5         -0.318907        1.000000        0.11152931        0.17349375        0.00609736
       6         -0.063754        0.000000        0.00000000        0.26382681        0.05576733
       7         -0.063754        0.000000        0.00000000        0.26382681        0.05576733
       8          0.159523        0.000000        0.10336149        0.09624957        0.02686589
       9          0.178562        0.000000        0.17304120        0.05288446        0.06204023
      10          0.272045        0.000000        0.00000000        0.36762231        0.06207916
      11          0.272045        0.000000        0.00000000        0.36762231        0.06207916
      12          0.304439        0.000000        0.02648421        0.68551270        0.05441113
      13          0.369437        0.000000        0.00000000        0.50876592        0.09969124
      14          0.369437        0.000000        0.00000000        0.50876592        0.09969124
      15          0.491498        0.000000        0.52230103        0.05618483        0.28717800
      16          0.607602        0.000000        0.05531331        0.19586163        0.14360334
      17          0.681082        0.000000        0.00000000        0.00000000        0.10228482
      18          0.681160        0.000000        0.00000000        0.00000000        0.09829916
      19          0.863218        0.000000        0.18176303        0.00593069        0.14243681
      20          0.889914        0.000000        0.00000000        0.00000000        0.96221322
      21          0.901027        0.000000        0.00000000        0.00000000        0.96282092
      22          0.969681        0.000000        0.00000000        0.05427501        0.57622091
      23          0.969681        0.000000        0.00000000        0.05427501        0.57622091
      24          1.226404        0.000000        0.07365219        0.34534367        0.38402430
      25          1.313521        0.000000        0.00000000        0.10897253        0.33797311
      26          1.313521        0.000000        0.00000000        0.10897253        0.33797311
      27          1.509155        0.000000        0.00000000        0.90446995        0.01677757
      28          1.509155        0.000000        0.00000000        0.90446995        0.01677757
      29          1.618255        0.000000        0.07993027        0.48931399        0.01604915
      30          2.204499        0.000000        0.00000000        0.00000000        0.78323788
      31          2.219043        0.000000        0.00000000        0.00000000        0.77088432
      32          2.402337        0.000000        0.19111863        0.03878227        0.05399562
      33          2.403471        0.000000        0.00000000        0.09250897        0.57525175
      34          2.403471        0.000000        0.00000000        0.09250897        0.57525175
      35          2.629137        0.000000        0.00000000        0.00934961        0.01133445
      36          2.629137        0.000000        0.00000000        0.00934961        0.01133445
      37          2.894386        0.000000        0.10110423        0.03343543        0.61007004
      38          3.243219        0.000000        0.04637973        0.02674594        0.13301651
      39          3.539105        0.000000        0.00000000        0.00000000        0.15226408
      40          3.542929        0.000000        0.00000000        0.00000000        0.16799561
      41          3.631492        0.000000        0.00000000        0.02999271        0.25601847
      42          3.631492        0.000000        0.00000000        0.02999271        0.25601847
      43          3.939524        0.000000        0.45936496        0.05703130        0.00086475
      44          6.788069        0.000000        0.24227361        0.06795781        0.06561465
